LAMMPS data file Created by LigParGen - (Written by Leela S. Dodda)

      58 atoms
      62 bonds
     115 angles
     170 dihedrals
      38 impropers
 
      58 atom types
      62 bond types
     115 angle types
     170 dihedral types
      38 improper types
 
   -9.735900    40.264100 xlo xhi
   -6.415840    43.584160 ylo yhi
   -4.398820    45.601180 zlo zhi

Masses

       1      1.008  
       2     12.011  
       3     12.011  
       4     12.011  
       5     12.011  
       6     12.011  
       7      1.008  
       8     12.011  
       9     14.007  
      10     12.011  
      11      1.008  
      12     12.011  
      13     12.011  
      14     12.011  
      15      1.008  
      16     12.011  
      17      1.008  
      18     14.007  
      19      1.008  
      20      1.008  
      21     12.011  
      22     12.011  
      23     15.999  
      24     14.007  
      25      1.008  
      26      1.008  
      27     12.011  
      28     12.011  
      29     15.999  
      30      1.008  
      31     12.011  
      32     12.011  
      33      1.008  
      34      1.008  
      35      1.008  
      36      1.008  
      37     12.011  
      38     12.011  
      39      1.008  
      40     18.998  
      41     14.007  
      42      1.008  
      43      1.008  
      44     12.011  
      45     12.011  
      46      1.008  
      47      1.008  
      48     12.011  
      49      1.008  
      50      1.008  
      51     12.011  
      52      1.008  
      53      1.008  
      54     32.060  
      55      1.008  
      56      1.008  
      57     15.999  
      58     15.999  

Pair Coeffs 

       1      0.030  2.4200000 
       2      0.070  3.5500000 
       3      0.070  3.5500000 
       4      0.070  3.5500000 
       5      0.070  3.5500000 
       6      0.070  3.5500000 
       7      0.030  2.4200000 
       8      0.070  3.5500000 
       9      0.170  3.2500000 
      10      0.070  3.5500000 
      11      0.030  2.4200000 
      12      0.070  3.5500000 
      13      0.066  3.5000000 
      14      0.070  3.5500000 
      15      0.030  2.4200000 
      16      0.070  3.5500000 
      17      0.030  2.4200000 
      18      0.170  3.2500000 
      19      0.030  2.5000000 
      20      0.030  2.5000000 
      21      0.070  3.5500000 
      22      0.066  3.5000000 
      23      0.210  2.9600000 
      24      0.170  3.2500000 
      25      0.030  2.5000000 
      26      0.030  2.5000000 
      27      0.070  3.5500000 
      28      0.083  3.4500000 
      29      0.210  2.9600000 
      30      0.030  2.5000000 
      31      0.083  3.4500000 
      32      0.083  3.4500000 
      33      0.030  2.5000000 
      34      0.030  2.5000000 
      35      0.030  2.5000000 
      36      0.030  2.5000000 
      37      0.070  3.5500000 
      38      0.066  3.5000000 
      39      0.030  2.4200000 
      40      0.060  2.9000000 
      41      0.170  3.3000000 
      42      0.030  2.5000000 
      43      0.030  2.5000000 
      44      0.066  3.5000000 
      45      0.066  3.5000000 
      46      0.030  2.5000000 
      47      0.030  2.5000000 
      48      0.066  3.5000000 
      49      0.030  2.5000000 
      50      0.030  2.5000000 
      51      0.066  3.5000000 
      52      0.030  2.5000000 
      53      0.030  2.5000000 
      54      0.250  3.5500000 
      55      0.030  2.5000000 
      56      0.030  2.5000000 
      57      0.170  2.9600000 
      58      0.170  2.9600000 

Bond Coeffs 

       1   367.0000     1.0800 
       2   469.0000     1.4000 
       3   469.0000     1.4000 
       4   385.0000     1.4600 
       5   469.0000     1.4000 
       6   367.0000     1.0800 
       7   469.0000     1.4000 
       8   483.0000     1.3390 
       9   469.0000     1.4000 
      10   367.0000     1.0800 
      11   469.0000     1.4000 
      12   317.0000     1.5100 
      13   483.0000     1.3390 
      14   367.0000     1.0800 
      15   469.0000     1.4000 
      16   367.0000     1.0800 
      17   337.0000     1.4490 
      18   340.0000     1.0900 
      19   340.0000     1.0900 
      20   490.0000     1.3350 
      21   337.0000     1.4490 
      22   570.0000     1.2290 
      23   418.0000     1.3880 
      24   340.0000     1.0900 
      25   340.0000     1.0900 
      26   317.0000     1.5220 
      27   337.0000     1.4750 
      28   570.0000     1.2290 
      29   340.0000     1.0880 
      30   260.0000     1.5200 
      31   260.0000     1.5200 
      32   340.0000     1.0880 
      33   340.0000     1.0880 
      34   340.0000     1.0880 
      35   340.0000     1.0880 
      36   469.0000     1.4000 
      37   317.0000     1.5100 
      38   367.0000     1.0800 
      39   420.0000     1.3540 
      40   382.0000     1.4480 
      41   340.0000     1.0900 
      42   340.0000     1.0900 
      43   382.0000     1.4480 
      44   382.0000     1.4480 
      45   340.0000     1.0900 
      46   340.0000     1.0900 
      47   268.0000     1.5290 
      48   340.0000     1.0900 
      49   340.0000     1.0900 
      50   268.0000     1.5290 
      51   340.0000     1.0900 
      52   340.0000     1.0900 
      53   340.0000     1.7700 
      54   340.0000     1.0900 
      55   340.0000     1.0900 
      56   700.0000     1.4400 
      57   700.0000     1.4400 
      58   469.0000     1.4000 
      59   469.0000     1.4000 
      60   418.0000     1.3880 
      61   260.0000     1.5200 
      62   340.0000     1.7700 

Angle Coeffs 

       1     35.000    120.000
       2     35.000    120.000
       3     63.000    120.000
       4     63.000    120.000
       5     35.000    120.000
       6     63.000    120.000
       7     70.000    124.000
       8     63.000    120.000
       9     35.000    120.000
      10     63.000    120.000
      11     70.000    120.000
      12     70.000    117.000
      13     35.000    120.000
      14     63.000    120.000
      15     35.000    120.000
      16     51.650    110.580
      17     35.000    109.500
      18     35.000    109.500
      19     50.000    121.900
      20     50.000    118.000
      21     80.000    122.900
      22     69.900    118.180
      23     35.000    109.500
      24     35.000    109.500
      25     63.000    110.100
      26     63.000    112.400
      27     80.000    120.400
      28     35.000    109.500
      29     42.830    109.430
      30     42.830    109.430
      31     37.500    117.200
      32     37.500    117.200
      33     37.500    117.200
      34     37.500    117.200
      35     70.000    124.000
      36     70.000    116.000
      37     35.000    120.000
      38     80.000    120.000
      39     80.000    111.200
      40     35.000    109.500
      41     35.000    109.500
      42     51.800    107.200
      43     51.800    107.200
      44     35.000    109.500
      45     35.000    109.500
      46     56.200    109.470
      47     35.000    109.500
      48     35.000    109.500
      49     56.200    109.470
      50     37.500    110.700
      51     37.500    110.700
      52     50.000    108.600
      53     37.500    110.700
      54     37.500    110.700
      55     74.000    108.900
      56     74.000    108.900
      57     74.000    108.900
      58     63.000    120.000
      59     35.000    120.000
      60     35.000    109.500
      61     35.000    109.500
      62     37.500    110.700
      63     63.000    120.000
      64     63.000    112.400
      65     35.000    109.500
      66     37.500    117.200
      67     33.000    107.800
      68     69.900    118.180
      69     35.000    120.000
      70     33.000    107.800
      71     80.000    120.000
      72     33.000    107.800
      73    104.000    119.000
      74     37.500    110.700
      75     35.000    109.500
      76     62.000    102.000
      77     50.000    108.600
      78     35.000    120.000
      79     70.000    120.000
      80     30.000     83.000
      81     37.500    110.700
      82     35.000    109.500
      83     37.500    117.200
      84     63.000    120.000
      85     70.000    126.400
      86     74.000    108.900
      87     50.000    121.900
      88     35.000    109.500
      89     63.000    120.000
      90     35.000    109.500
      91     33.000    107.800
      92     37.500    117.200
      93     35.000    109.500
      94     35.000    120.000
      95     37.500    110.700
      96     30.000     83.000
      97     35.000    114.300
      98     70.000    124.000
      99     80.000    120.600
     100     35.000    120.000
     101     33.000    107.800
     102     37.500    117.200
     103     80.000    120.600
     104     33.000    107.800
     105     33.000    107.800
     106     35.000    109.500
     107     51.800    107.200
     108     30.000     83.000
     109     63.000    120.000
     110     37.500    117.200
     111     37.500    117.200
     112     35.000    114.300
     113     63.000    120.000
     114     35.000    109.500
     115     70.000    120.000

Dihedral Coeffs  

       1      0.000      7.250      0.000      0.000 
       2      0.000      7.250      0.000      0.000 
       3      0.000      2.170      0.000      0.000 
       4      0.000      7.250      0.000      0.000 
       5      0.000      7.250      0.000      0.000 
       6      0.000      7.250      0.000      0.000 
       7      0.000      0.000      0.000      0.000 
       8     -2.365      0.912     -0.850      0.000 
       9      0.000      6.089      0.000      0.000 
      10      0.000      0.000      0.000      0.000 
      11      0.000      0.000      0.000      0.000 
      12      0.000      0.000      0.000      0.000 
      13      0.000      0.000      0.000      0.000 
      14      0.000      0.000      0.000      0.000 
      15      0.000      0.000      0.000      0.000 
      16      0.000      7.250      0.000      0.000 
      17     -0.500      0.500     -0.500      0.000 
      18      0.416     -0.128      0.695      0.000 
      19      0.000      0.000      0.560      0.000 
      20      0.000      0.000      0.560      0.000 
      21     -1.013     -0.709      0.473      0.000 
      22      0.416     -0.128      0.695      0.000 
      23      0.000      0.000     -0.372      0.000 
      24     -2.365      0.912     -0.850      0.000 
      25      0.000      0.000      0.000      0.000 
      26      0.000      0.000      0.350      0.000 
      27      0.000      7.250      0.000      0.000 
      28      0.000      0.000      0.000      0.000 
      29      0.000      0.000      0.000      0.000 
      30      0.000      0.000      0.560      0.000 
      31      0.000      7.250      0.000      0.000 
      32      0.000      0.000      0.000      0.000 
      33      0.000      2.170      0.000      0.000 
      34      0.000      4.900      0.000      0.000 
      35      0.000      0.000      0.000      0.000 
      36      0.000      4.900      0.000      0.000 
      37      0.000      0.000      0.000      0.000 
      38      0.000      0.000      0.560      0.000 
      39     -1.396     -0.427      0.000      0.000 
      40      0.000      0.000      0.000      0.000 
      41      0.000      7.250      0.000      0.000 
      42      0.000      7.250      0.000      0.000 
      43      0.000      0.000      0.000      0.000 
      44      0.000      7.250      0.000      0.000 
      45      0.000      7.250      0.000      0.000 
      46      0.000      0.000      0.000      0.000 
      47      0.000      7.250      0.000      0.000 
      48      0.000      0.000      0.000      0.000 
      49      0.000      0.000      0.000      0.000 
      50      0.000      0.000      0.350      0.000 
      51      0.000      0.000      0.000      0.000 
      52      0.000      0.000      0.350      0.000 
      53      0.000      0.000      0.350      0.000 
      54      0.000      0.000      0.000      0.000 
      55      0.000      0.000      0.000      0.000 
      56      0.000      0.000      0.000      0.000 
      57      0.000      0.000      0.000      0.000 
      58      0.000      0.000      0.300      0.000 
      59      0.000      0.000      0.000      0.000 
      60      0.000      0.000      0.300      0.000 
      61      0.000      0.000      0.300      0.000 
      62      0.000      7.250      0.000      0.000 
      63      0.000      0.000      0.300      0.000 
      64      0.000      6.089      0.000      0.000 
      65     -1.013     -0.709      0.473      0.000 
      66      0.000      0.000      0.452      0.000 
      67      0.000      7.250      0.000      0.000 
      68      0.000      0.000      0.560      0.000 
      69      0.000      7.250      0.000      0.000 
      70      0.000      0.000      0.000      0.000 
      71      0.000      7.250      0.000      0.000 
      72      0.000      0.000      0.000      0.000 
      73      0.000      0.000      0.350      0.000 
      74      0.416     -0.128      0.695      0.000 
      75      0.000      0.000      0.350      0.000 
      76      1.816      1.222      1.581      0.000 
      77      0.000      0.000      0.452      0.000 
      78      0.000      0.000      0.350      0.000 
      79      0.000      4.900      0.000      0.000 
      80      0.000      7.250      0.000      0.000 
      81      0.000      7.250      0.000      0.000 
      82      0.000      0.000      0.000      0.000 
      83      0.000      0.000      0.000      0.000 
      84      0.000      0.000      0.350      0.000 
      85      0.000      0.000      0.350      0.000 
      86      0.000      7.250      0.000      0.000 
      87      0.000      0.000      0.000      0.000 
      88      0.000      0.000      0.560      0.000 
      89      4.600      0.000      0.000      0.000 
      90      0.000      0.000      0.560      0.000 
      91      0.000      7.250      0.000      0.000 
      92     -1.396     -0.427      0.000      0.000 
      93      0.000      7.250      0.000      0.000 
      94      0.000      0.000      0.000      0.000 
      95      0.000      2.170      0.000      0.000 
      96      0.000      0.000      0.300      0.000 
      97      0.000      7.250      0.000      0.000 
      98      0.000      0.000      0.560      0.000 
      99      0.000      7.250      0.000      0.000 
     100      0.416     -0.128      0.695      0.000 
     101      1.428      0.086      0.029      0.000 
     102      0.000      7.250      0.000      0.000 
     103      0.000      0.000      0.000      0.000 
     104      0.000      0.000      0.000      0.000 
     105      0.000      7.250      0.000      0.000 
     106      0.000      6.089      0.000      0.000 
     107     -1.013     -0.709      0.473      0.000 
     108      0.000      7.250      0.000      0.000 
     109      0.000      0.000      0.000      0.000 
     110      0.000      7.250      0.000      0.000 
     111      0.000      0.000      0.300      0.000 
     112      0.000      7.250      0.000      0.000 
     113      0.000      0.000      0.350      0.000 
     114      0.000      7.250      0.000      0.000 
     115      0.000      7.250      0.000      0.000 
     116      0.000      0.000      0.000      0.000 
     117      0.000      0.000      0.000      0.000 
     118      0.000      0.000      0.560      0.000 
     119     -1.396     -0.427      0.000      0.000 
     120      0.000      0.000      0.000      0.000 
     121      0.000      7.250      0.000      0.000 
     122      0.000      7.250      0.000      0.000 
     123      1.428      0.086      0.029      0.000 
     124      0.416     -0.128      0.695      0.000 
     125      0.000      0.000      0.560      0.000 
     126      0.000      7.250      0.000      0.000 
     127      0.000      7.250      0.000      0.000 
     128      0.000      0.000      0.000      0.000 
     129      2.300      6.089      0.000      0.000 
     130      2.300      6.089      0.000      0.000 
     131      0.000      7.250      0.000      0.000 
     132      0.000      7.250      0.000      0.000 
     133      0.000      0.000      0.560      0.000 
     134      0.000      0.000      0.000      0.000 
     135     -1.396     -0.427      0.000      0.000 
     136      0.000      0.000      0.300      0.000 
     137      0.416     -0.128      0.695      0.000 
     138      0.000      7.250      0.000      0.000 
     139      0.000      0.000      0.000      0.000 
     140      0.000      2.170      0.000      0.000 
     141      0.000      0.000      0.000      0.000 
     142      0.000      0.000      0.000      0.000 
     143      0.000      0.000     -0.372      0.000 
     144      0.000      0.000      0.000      0.000 
     145      0.000      0.000      0.000      0.000 
     146      0.000      7.250      0.000      0.000 
     147      0.000      4.900      0.000      0.000 
     148      0.000      0.000      0.300      0.000 
     149     -1.737      1.251     -3.501      0.000 
     150      0.000      0.000      0.452      0.000 
     151      0.000      0.000      0.000      0.000 
     152      4.600      0.000      0.000      0.000 
     153      0.000      0.000      0.560      0.000 
     154      0.000      7.250      0.000      0.000 
     155     -1.013     -0.709      0.473      0.000 
     156      0.000      0.000      0.000      0.000 
     157      0.000      7.250      0.000      0.000 
     158      0.000      7.250      0.000      0.000 
     159      0.000      0.000      0.350      0.000 
     160      0.000      0.000      0.452      0.000 
     161      0.000      7.250      0.000      0.000 
     162      0.000      0.000      0.000      0.000 
     163      0.000      0.000      0.000      0.000 
     164      0.000      0.000      0.000      0.000 
     165      0.000      0.000      0.000      0.000 
     166      0.000      7.250      0.000      0.000 
     167      0.000      0.000      0.000      0.000 
     168      0.000      6.089      0.000      0.000 
     169      0.000      0.000      0.000      0.000 
     170      0.000      0.000      0.350      0.000 

Improper Coeffs 

       1      2.500      -1       2 
       2      2.500      -1       2 
       3      2.500      -1       2 
       4      2.500      -1       2 
       5      2.500      -1       2 
       6      2.500      -1       2 
       7      2.500      -1       2 
       8      2.500      -1       2 
       9      0.000      -1       2 
      10      0.000      -1       2 
      11      2.500      -1       2 
      12     10.500      -1       2 
      13      0.000      -1       2 
      14      0.000      -1       2 
      15      0.000      -1       2 
      16     10.500      -1       2 
      17      0.000      -1       2 
      18      0.000      -1       2 
      19      2.500      -1       2 
      20      2.500      -1       2 
      21      2.500      -1       2 
      22      0.000      -1       2 
      23      0.000      -1       2 
      24      0.000      -1       2 
      25      0.000      -1       2 
      26      0.000      -1       2 
      27      0.000      -1       2 
      28      0.000      -1       2 
      29      0.000      -1       2 
      30      0.000      -1       2 
      31      0.000      -1       2 
      32      0.000      -1       2 
      33      0.000      -1       2 
      34      0.000      -1       2 
      35      0.000      -1       2 
      36      0.000      -1       2 
      37      0.000      -1       2 
      38      0.000      -1       2 

Atoms 

     1      1      1 0.16750000    1.000  1.00000  0.00000
     2      1      2 -0.09380000   -0.087  1.00000  0.00000
     3      1      3 -0.04050000   -0.785  1.00000  1.20763
     4      1      4 -0.15460000   -0.733  0.94382 -1.22130
     5      1      5 0.09460000   -0.074  0.90266  2.48497
     6      1      6 -0.12220000   -2.175  1.01615  1.12078
     7      1      7 0.15020000   -0.135  0.90218 -2.12645
     8      1      8 -0.09470000   -2.119  0.93887 -1.29602
     9      1      9 -0.25360000    1.102  0.25127  2.41741
    10      1     10 -0.16140000   -0.585  1.34749  3.70330
    11      1     11 0.14760000   -2.781  1.01831  2.01949
    12      1     12 -0.13520000   -2.826  0.97575 -0.09874
    13      1     13 0.21870000   -2.777  0.95510 -2.65606
    14      1     14 0.01670000    1.741 -0.04069  3.56760
    15      1     15 0.17110000   -1.533  1.86678  3.76470
    16      1     16 -0.14560000    0.125  1.12944  4.86709
    17      1     17 0.15370000   -3.910  0.97249 -0.09213
    18      1     18 -0.96310000   -4.203  0.66490 -2.64101
    19      1     19 0.12860000   -2.636  1.95302 -3.08698
    20      1     20 0.12860000   -2.301  0.22486 -3.32076
    21      1     21 0.85610000   -5.174  1.60936 -2.54241
    22      1     22 0.10530000   -4.735 -0.67943 -2.67518
    23      1     23 -0.42310000   -4.966  2.80989 -2.45498
    24      1     24 -0.82410000   -6.384  0.97659 -2.55788
    25      1     25 0.15130000   -4.493 -1.15313 -3.63066
    26      1     26 0.15130000   -4.383 -1.25494 -1.81295
    27      1     27 0.55360000   -6.214 -0.38811 -2.58808
    28      1     28 0.11920000   -7.660  1.62232 -2.49139
    29      1     29 -0.38610000   -7.088 -1.24401 -2.55094
    30      1     30 0.15070000   -8.023  1.69435 -1.47136
    31      1     31 -0.23630000   -8.708  1.37621 -3.54038
    32      1     32 -0.22040000   -8.061  2.72626 -3.43661
    33      1     33 0.13900000   -8.455  0.76574 -4.39882
    34      1     34 0.13900000   -9.736  1.28451 -3.21596
    35      1     35 0.14120000   -7.393  3.00615 -4.24095
    36      1     36 0.14120000   -8.650  3.54226 -3.04127
    37      1     37 0.03180000    1.291  0.40445  4.79562
    38      1     38 0.07330000    2.916 -0.96579  3.46218
    39      1     39 0.17730000   -0.248  1.48255  5.81772
    40      1     40 -0.07950000    1.952  0.09144  5.91932
    41      1     41 -0.61400000    2.471 -2.32073  3.06909
    42      1     42 0.11510000    3.518 -0.97721  4.38064
    43      1     43 0.11510000    3.567 -0.53252  2.69729
    44      1     44 0.04540000    3.422 -2.90646  2.11681
    45      1     45 0.04020000    2.252 -3.17594  4.25522
    46      1     46 0.11090000    4.362 -3.11084  2.63097
    47      1     47 0.11090000    3.633 -2.19171  1.31371
    48      1     48 -0.51470000    2.892 -4.16816  1.47423
    49      1     49 0.11310000    1.609 -2.66076  4.97415
    50      1     50 0.11310000    3.202 -3.38130  4.76206
    51      1     51 -0.48110000    1.562 -4.46952  3.86650
    52      1     52 0.18080000    3.620 -4.58226  0.77224
    53      1     53 0.18080000    1.957 -3.98561  0.93954
    54      1     54 1.29570000    2.579 -5.39683  2.70260
    55      1     55 0.17470000    0.595 -4.27861  3.39332
    56      1     56 0.17470000    1.406 -5.09925  4.74302
    57      1     57 -0.56720000    1.760 -6.41584  2.07700
    58      1     58 -0.56720000    3.836 -5.73200  3.34301

Bonds 

     1      1      2      1
     2      2      3      2
     3      3      4      2
     4      4      5      3
     5      5      6      3
     6      6      7      4
     7      7      8      4
     8      8      9      5
     9      9     10      5
    10     10     11      6
    11     11     12      6
    12     12     13      8
    13     13     14      9
    14     14     15     10
    15     15     16     10
    16     16     17     12
    17     17     18     13
    18     18     19     13
    19     19     20     13
    20     20     21     18
    21     21     22     18
    22     22     23     21
    23     23     24     21
    24     24     25     22
    25     25     26     22
    26     26     27     22
    27     27     28     24
    28     28     29     27
    29     29     30     28
    30     30     31     28
    31     31     32     28
    32     32     33     31
    33     33     34     31
    34     34     35     32
    35     35     36     32
    36     36     37     14
    37     37     38     14
    38     38     39     16
    39     39     40     37
    40     40     41     38
    41     41     42     38
    42     42     43     38
    43     43     44     41
    44     44     45     41
    45     45     46     44
    46     46     47     44
    47     47     48     44
    48     48     49     45
    49     49     50     45
    50     50     51     45
    51     51     52     48
    52     52     53     48
    53     53     54     48
    54     54     55     51
    55     55     56     51
    56     56     57     54
    57     57     58     54
    58     58     12      8
    59     59     37     16
    60     60     27     24
    61     61     32     31
    62     62     54     51

Angles 

     1      1      1      2      3
     2      2      1      2      4
     3      3      2      3      5
     4      4      2      3      6
     5      5      2      4      7
     6      6      2      4      8
     7      7      3      5      9
     8      8      3      5     10
     9      9      3      6     11
    10     10      3      6     12
    11     11      4      8     13
    12     12      5      9     14
    13     13      5     10     15
    14     14      5     10     16
    15     15      6     12     17
    16     16      8     13     18
    17     17      8     13     19
    18     18      8     13     20
    19     19     13     18     21
    20     20     13     18     22
    21     21     18     21     23
    22     22     18     21     24
    23     23     18     22     25
    24     24     18     22     26
    25     25     18     22     27
    26     26     21     24     28
    27     27     22     27     29
    28     28     24     28     30
    29     29     24     28     31
    30     30     24     28     32
    31     31     28     31     33
    32     32     28     31     34
    33     33     28     32     35
    34     34     28     32     36
    35     35      9     14     37
    36     36      9     14     38
    37     37     10     16     39
    38     38     14     37     40
    39     39     14     38     41
    40     40     14     38     42
    41     41     14     38     43
    42     42     38     41     44
    43     43     38     41     45
    44     44     41     44     46
    45     45     41     44     47
    46     46     41     44     48
    47     47     41     45     49
    48     48     41     45     50
    49     49     41     45     51
    50     50     44     48     52
    51     51     44     48     53
    52     52     44     48     54
    53     53     45     51     55
    54     54     45     51     56
    55     55     48     54     57
    56     56     48     54     58
    57     57     51     54     57
    58     58      6     12      8
    59     59      7      4      8
    60     60     54     51     55
    61     61     41     38     43
    62     62     49     45     51
    63     63     14     37     16
    64     64     27     24     28
    65     65     18     13     20
    66     66     32     31     34
    67     67     42     38     43
    68     68     22     27     24
    69     69      8     12     17
    70     70     49     45     50
    71     71     16     37     40
    72     72     55     51     56
    73     73     57     54     58
    74     74     50     45     51
    75     75     25     22     27
    76     76     48     54     51
    77     77     45     51     54
    78     78     11      6     12
    79     79     37     14     38
    80     80     28     31     32
    81     81     47     44     48
    82     82     53     48     54
    83     83     31     32     35
    84     84      4      8     12
    85     85     21     24     27
    86     86     51     54     58
    87     87     21     18     22
    88     88     18     13     19
    89     89      5      3      6
    90     90     54     51     56
    91     91     52     48     53
    92     92     30     28     32
    93     93     52     48     54
    94     94     15     10     16
    95     95     46     44     48
    96     96     28     32     31
    97     97     35     32     36
    98     98      9      5     10
    99     99     23     21     24
   100    100     37     16     39
   101    101     25     22     26
   102    102     30     28     31
   103    103     24     27     29
   104    104     46     44     47
   105    105     19     13     20
   106    106     26     22     27
   107    107     44     41     45
   108    108     31     28     32
   109    109      3      2      4
   110    110     32     31     33
   111    111     31     32     36
   112    112     33     31     34
   113    113     10     16     37
   114    114     41     38     42
   115    115     12      8     13

Dihedrals

     1      1      5      3      2      1 
     2      2      7      4      2      1 
     3      3      9      5      3      2 
     4      4     11      6      3      2 
     5      5     14      9      5      3 
     6      6     15     10      5      3 
     7      7     18     13      8      4 
     8      8     21     18     13      8 
     9      9     23     21     18     13 
    10     10     25     22     18     13 
    11     11     30     28     24     21 
    12     12     33     31     28     32 
    13     13     34     31     28     32 
    14     14     35     32     28     31 
    15     15     36     32     28     31 
    16     16     37     14      9      5 
    17     17     41     38     14      9 
    18     18     44     41     38     14 
    19     19     46     44     41     38 
    20     20     49     45     41     38 
    21     21     52     48     44     41 
    22     22     51     45     41     44 
    23     23     43     38     14      9 